                         Program Version 6.1.0  -  RELEASE   -
|  1> # avogadro generated ORCA file
|  2> # C7H8O | Geometry Optimization | revPBE/def2-TZVP
|  3> #
|  4> ! Opt revPBE def2-TZVP
|  5>
|  6> %maxcore 16384
|  7>
|  8> %pal
|  9>    nprocs 1
| 10> end
| 11>
| 12> * xyz 0 1
| 13>    C     -2.404980    0.574912   -0.000109
| 14>    C     -2.326273   -0.818739   -0.000127
| 15>    C      0.082689   -3.532877   -0.000256
| 16>    H      0.913833    1.292863   -0.000225
| 17>    C     -1.238297    1.335117   -0.000144
| 18>    C     -1.086225   -1.463181   -0.000181
| 19>    H     -0.142813   -4.603777   -0.000251
| 20>    H     -3.375573    1.063240   -0.000067
| 21>    C      0.080296   -0.696611   -0.000217
| 22>    H     -3.238904   -1.409551   -0.000099
| 23>    O     -1.152832   -2.829459   -0.000192
| 24>    H     -1.295460    2.420391   -0.000130
| 25>    H      0.661548   -3.314856   -0.903949
| 26>    H      0.661638   -3.314867    0.903382
| 27>    C      0.002561    0.700036   -0.000198
| 28>    H      1.064499   -1.152181   -0.000259
| 29> *
| 30>
| 31>
| 32>
| 33>                          ****END OF INPUT****
 Total Charge           Charge          ....    0
 Multiplicity           Mult            ....    1
 Number of Electrons    NEL             ....   58
FINAL SINGLE POINT ENERGY      -346.796885691433
FINAL SINGLE POINT ENERGY      -346.797911529571
FINAL SINGLE POINT ENERGY      -346.798103762134
FINAL SINGLE POINT ENERGY      -346.798132688971
FINAL SINGLE POINT ENERGY      -346.798137377610
                    ***********************HURRAY********************

CARTESIAN COORDINATES (ANGSTROEM)
---------------------------------
  C     -2.413169    0.582645   -0.000106
  C     -2.348715   -0.811144   -0.000126
  C      0.097928   -3.547625   -0.000254
  H      0.922496    1.290950   -0.000230
  C     -1.239233    1.353762   -0.000142
  C     -1.097391   -1.459559   -0.000185
  H     -0.172980   -4.610528   -0.000254
  H     -3.389790    1.072143   -0.000060
  C      0.083346   -0.695379   -0.000222
  H     -3.254684   -1.419907   -0.000098
  O     -1.142582   -2.833991   -0.000201
  H     -1.293339    2.443744   -0.000126
  H      0.695739   -3.323969   -0.900392
  H      0.695806   -3.323986    0.899844
  C     -0.000419    0.706212   -0.000201
  H      1.062695   -1.172909   -0.000268

 Multiplicity           Mult            ....    1
 Number of Electrons    NEL             ....   58
 Basis Dimension        Dim             ....  296

ORBITAL ENERGIES
----------------

  NO   OCC          E(Eh)            E(eV)
   0   2.0000     -18.796115      -511.4683
   1   2.0000      -9.953392      -270.8456
   2   2.0000      -9.947752      -270.6921
   3   2.0000      -9.897673      -269.3294
   4   2.0000      -9.896495      -269.2973
   5   2.0000      -9.895531      -269.2711
   6   2.0000      -9.891926      -269.1730
   7   2.0000      -9.889351      -269.1029
   8   2.0000      -0.974776       -26.5250
   9   2.0000      -0.770918       -20.9778
  10   2.0000      -0.684424       -18.6241
  11   2.0000      -0.672559       -18.3013
  12   2.0000      -0.627469       -17.0743
  13   2.0000      -0.546053       -14.8589
  14   2.0000      -0.529868       -14.4184
  15   2.0000      -0.481231       -13.0949
  16   2.0000      -0.432421       -11.7668
  17   2.0000      -0.424123       -11.5410
  18   2.0000      -0.415308       -11.3011
  19   2.0000      -0.394023       -10.7219
  20   2.0000      -0.372733       -10.1426
  21   2.0000      -0.363884        -9.9018
  22   2.0000      -0.335156        -9.1200
  23   2.0000      -0.320062        -8.7093
  24   2.0000      -0.310772        -8.4565
  25   2.0000      -0.282719        -7.6932
  26   2.0000      -0.280454        -7.6315
  27   2.0000      -0.225810        -6.1446
  28   2.0000      -0.194244        -5.2856
  29   0.0000      -0.038409        -1.0452
  30   0.0000      -0.024375        -0.6633
  31   0.0000       0.021562         0.5867
  32   0.0000       0.036339         0.9888
  33   0.0000       0.052093         1.4175

MULLIKEN ATOMIC CHARGES
-----------------------
   0 C :   -0.054150
   1 C :   -0.183688
   2 C :   -0.191360
   3 H :    0.085485
   4 C :   -0.113404
   5 C :    0.294220
   6 H :    0.128094
   7 H :    0.082858
   8 C :   -0.226361
   9 H :    0.077468
  10 O :   -0.196920
  11 H :    0.082011
  12 H :    0.111849
  13 H :    0.111849
  14 C :   -0.097292
  15 H :    0.089341
Sum of atomic charges:    0.0000000

LOEWDIN ATOMIC CHARGES
----------------------
   0 C :   -0.140521
   1 C :   -0.118466
   2 C :   -0.329310
   3 H :    0.141076
   4 C :   -0.159002
   5 C :   -0.246719
   6 H :    0.114361
   7 H :    0.141594
   8 C :   -0.145162
   9 H :    0.145244
  10 O :    0.242689
  11 H :    0.138910
  12 H :    0.106979
  13 H :    0.106980
  14 C :   -0.142280
  15 H :    0.143628

  Mayer bond orders larger than 0.100000
B(  0-C ,  1-C ) :   1.4506 B(  0-C ,  4-C ) :   1.3825 B(  0-C ,  7-H ) :   0.9719
B(  1-C ,  5-C ) :   1.3550 B(  1-C ,  9-H ) :   0.9789 B(  2-C ,  6-H ) :   0.9689
B(  2-C , 10-O ) :   0.9761 B(  2-C , 12-H ) :   0.9591 B(  2-C , 13-H ) :   0.9591
B(  3-H , 14-C ) :   0.9574 B(  4-C , 11-H ) :   0.9680 B(  4-C , 14-C ) :   1.4377
B(  5-C ,  8-C ) :   1.3075 B(  5-C , 10-O ) :   1.1607 B(  8-C , 14-C ) :   1.3843
B(  8-C , 15-H ) :   0.9572

FINAL SINGLE POINT ENERGY      -346.798138053904

DIPOLE MOMENT
-------------

Method             : SCF
Type of density    : Electron Density
Multiplicity       :   1
Irrep              :   0
Energy             :  -346.7981380539037559 Eh
Basis              : AO
                                X                 Y                 Z
Electronic contribution:     -2.467113804       1.258352553       0.000102386
Nuclear contribution   :      2.922842225      -1.506773119      -0.000121309
                        -----------------------------------------
Total Dipole Moment    :      0.455728421      -0.248420565      -0.000018922
                        -----------------------------------------
Magnitude (a.u.)       :      0.519038699
Magnitude (Debye)      :      1.319291528

Rotational constants in cm-1:             0.166360             0.051446             0.039596
Rotational constants in MHz :          4987.343914          1542.303507          1187.050242

                             ****ORCA TERMINATED NORMALLY****
TOTAL RUN TIME: 0 days 0 hours 1 minutes 8 seconds 991 msec
