                         Program Version 6.1.0  -  RELEASE   -
|  1> # avogadro generated ORCA file
|  2> # C6H5NO2 | Geometry Optimization | revPBE/def2-TZVP
|  3> #
|  4> ! Opt revPBE def2-TZVP
|  5>
|  6> %maxcore 16384
|  7>
|  8> %pal
|  9>    nprocs 1
| 10> end
| 11>
| 12> * xyz 0 1
| 13>    C     -3.101753    1.097412   -0.000098
| 14>    C     -3.059846   -0.303528   -0.000105
| 15>    C     -1.917411    1.846871   -0.000114
| 16>    C     -0.687648    1.186150   -0.000138
| 17>    C     -0.642586   -0.209314   -0.000145
| 18>    C     -1.824172   -0.952916   -0.000128
| 19>    H     -1.935465    2.934717   -0.000109
| 20>    H      0.237300    1.758634   -0.000152
| 21>    H      0.318179   -0.719980   -0.000165
| 22>    H     -1.781391   -2.039949   -0.000134
| 23>    H     -3.971462   -0.897386   -0.000092
| 24>    N     -4.398501    1.785497   -0.000076
| 25>    O     -4.394401    3.025034   -0.000058
| 26>    O     -5.422625    1.086995   -0.000077
| 27> *
| 28>
| 29>
| 30>
| 31>                          ****END OF INPUT****
 Total Charge           Charge          ....    0
 Multiplicity           Mult            ....    1
 Number of Electrons    NEL             ....   64
FINAL SINGLE POINT ENERGY      -436.816950717179
FINAL SINGLE POINT ENERGY      -436.817459754463
FINAL SINGLE POINT ENERGY      -436.817717353716
FINAL SINGLE POINT ENERGY      -436.817739006680
FINAL SINGLE POINT ENERGY      -436.817743252332
FINAL SINGLE POINT ENERGY      -436.817737966544
FINAL SINGLE POINT ENERGY      -436.817744012694
                    ***********************HURRAY********************

CARTESIAN COORDINATES (ANGSTROEM)
---------------------------------
  C     -3.082959    1.086937   -0.000083
  C     -3.059231   -0.312048   -0.000095
  C     -1.910543    1.850563   -0.000102
  C     -0.679123    1.187049   -0.000137
  C     -0.632561   -0.214569   -0.000146
  C     -1.819953   -0.960747   -0.000129
  H     -1.976857    2.937567   -0.000102
  H      0.245563    1.767016   -0.000160
  H      0.331713   -0.726862   -0.000170
  H     -1.782816   -2.051636   -0.000146
  H     -3.997043   -0.865662   -0.000088
  N     -4.402440    1.787921   -0.000059
  O     -4.393591    3.024225   -0.000087
  O     -5.421942    1.088482   -0.000088

 Multiplicity           Mult            ....    1
 Number of Electrons    NEL             ....   64
 Basis Dimension        Dim             ....  309

ORBITAL ENERGIES
----------------

  NO   OCC          E(Eh)            E(eV)
   0   2.0000     -18.792976      -511.3829
   1   2.0000     -18.792971      -511.3827
   2   2.0000     -14.218597      -386.9077
   3   2.0000      -9.965484      -271.1746
   4   2.0000      -9.930685      -270.2277
   5   2.0000      -9.930667      -270.2272
   6   2.0000      -9.929831      -270.2044
   7   2.0000      -9.927977      -270.1540
   8   2.0000      -9.927939      -270.1529
   9   2.0000      -1.127968       -30.6936
  10   2.0000      -0.965937       -26.2845
  11   2.0000      -0.815221       -22.1833
  12   2.0000      -0.735089       -20.0028
  13   2.0000      -0.705964       -19.2102
  14   2.0000      -0.638143       -17.3647
  15   2.0000      -0.574982       -15.6461
  16   2.0000      -0.542737       -14.7686
  17   2.0000      -0.507836       -13.8189
  18   2.0000      -0.480242       -13.0680
  19   2.0000      -0.460823       -12.5396
  20   2.0000      -0.460453       -12.5296
  21   2.0000      -0.424480       -11.5507
  22   2.0000      -0.419119       -11.4048
  23   2.0000      -0.401890       -10.9360
  24   2.0000      -0.356827        -9.7098
  25   2.0000      -0.347103        -9.4452
  26   2.0000      -0.329900        -8.9770
  27   2.0000      -0.279790        -7.6135
  28   2.0000      -0.262892        -7.1537
  29   2.0000      -0.261148        -7.1062
  30   2.0000      -0.257081        -6.9955
  31   2.0000      -0.245039        -6.6678
  32   0.0000      -0.124769        -3.3951
  33   0.0000      -0.068245        -1.8570
  34   0.0000      -0.045188        -1.2296
  35   0.0000       0.011181         0.3042
  36   0.0000       0.047804         1.3008

MULLIKEN ATOMIC CHARGES
-----------------------
   0 C :    0.105712
   1 C :   -0.178141
   2 C :   -0.177985
   3 C :   -0.042418
   4 C :   -0.084890
   5 C :   -0.042267
   6 H :    0.127749
   7 H :    0.102389
   8 H :    0.101500
   9 H :    0.102383
  10 H :    0.127805
  11 N :    0.403011
  12 O :   -0.272387
  13 O :   -0.272461
Sum of atomic charges:   -0.0000000

LOEWDIN ATOMIC CHARGES
----------------------
   0 C :   -0.151697
   1 C :   -0.092088
   2 C :   -0.092083
   3 C :   -0.122732
   4 C :   -0.115178
   5 C :   -0.122740
   6 H :    0.156279
   7 H :    0.147127
   8 H :    0.146271
   9 H :    0.147129
  10 H :    0.156286
  11 N :   -0.030532
  12 O :   -0.013001
  13 O :   -0.013042

  Mayer bond orders larger than 0.100000
B(  0-C ,  1-C ) :   1.4183 B(  0-C ,  2-C ) :   1.4183 B(  0-C , 11-N ) :   0.9756
B(  1-C ,  5-C ) :   1.4032 B(  1-C , 10-H ) :   0.9379 B(  2-C ,  3-C ) :   1.4032
B(  2-C ,  6-H ) :   0.9379 B(  3-C ,  4-C ) :   1.4010 B(  3-C ,  7-H ) :   0.9649
B(  4-C ,  5-C ) :   1.4012 B(  4-C ,  8-H ) :   0.9633 B(  5-C ,  9-H ) :   0.9649
B( 11-N , 12-O ) :   1.6416 B( 11-N , 13-O ) :   1.6414 B( 12-O , 13-O ) :   0.2427

FINAL SINGLE POINT ENERGY      -436.817744096219

DIPOLE MOMENT
-------------

Method             : SCF
Type of density    : Electron Density
Multiplicity       :   1
Irrep              :   0
Energy             :  -436.8177440962185756 Eh
Basis              : AO
                                X                 Y                 Z
Electronic contribution:     -5.381061854       2.858493952       0.000134685
Nuclear contribution   :      6.925236121      -3.678696058      -0.000143755
                        -----------------------------------------
Total Dipole Moment    :      1.544174267      -0.820202106      -0.000009069
                        -----------------------------------------
Magnitude (a.u.)       :      1.748486677
Magnitude (Debye)      :      4.444299939

Rotational constants in cm-1:             0.130948             0.042147             0.031885
Rotational constants in MHz :          3925.721000          1263.536502           955.876978

                             ****ORCA TERMINATED NORMALLY****
TOTAL RUN TIME: 0 days 0 hours 1 minutes 36 seconds 718 msec
